% Model:              Micro_homogenous_v2.mph
% Version:            COMSOL 6.2.0.415
% Date:               Jan 30 2025, 12:40
% Dimension:          3
% Nodes:              501
% Expressions:        5
% Description:        Electric field, x-component, Electric field, y-component, Electric field, z-component, Electric potential, 
% Length unit:        m
% x                       y                        z                        ec.Ex (V/m)              ec.Ey (V/m)              ec.Ez (V/m)              V (V)                    d(ec.Ex,x) (V/m^2)
0                         1.18E-4                  8.099999999999999E-5     0.012679690275092526     25.617633777782977       17.545077028016408       0.0031743639452690674    201443.2600325942
1.0E-6                    1.18E-4                  8.099999999999999E-5     0.21412295030751238      25.607578366317206       17.536503097236817       0.003174250543948777     201443.2600325942
2.0E-6                    1.18E-4                  8.099999999999999E-5     0.4155662103401596       25.597522954851662       17.5279291664571         0.0031739356993684513    201443.2600325942
3.0E-6                    1.18E-4                  8.099999999999999E-5     0.6170094703726932       25.58746754338589        17.519355235677295       0.0031734194115280953    201443.2600325942
4.0E-6                    1.18E-4                  8.099999999999999E-5     0.8184527304053759       25.577412131920113       17.51078130489782        0.0031727016804277064    201443.2600325942
4.9999999999999996E-6     1.18E-4                  8.099999999999999E-5     1.0198959904379343       25.567356720454452       17.502207374118115       0.003171782506067285     201443.2600325942
6.0E-6                    1.18E-4                  8.099999999999999E-5     1.207809369172253        25.57151115202737        17.488905921034945       0.0031706839674904754    219539.44386577606
7.0E-6                    1.18E-4                  8.099999999999999E-5     1.4273488130379661       25.53073633475097        17.485433595552212       0.0031693663883993715    219539.44386577606
8.0E-6                    1.18E-4                  8.099999999999999E-5     1.6468882569038783       25.489961517474526       17.48196127006951        0.0031678292698644       219539.44386577606
9.0E-6                    1.18E-4                  8.099999999999999E-5     1.866427700769563        25.44918670019817        17.478488944586925       0.003166072611885564     219539.44386577606
9.999999999999999E-6      1.18E-4                  8.099999999999999E-5     2.0460352016587677       25.37155879833489        17.426774455002132       0.0031640979871172432    196999.30698223598
1.1E-5                    1.18E-4                  8.099999999999999E-5     2.5662141624436714       25.361689732174383       17.427353379248533       0.0031619400914397436    167848.59928986803
1.2E-5                    1.18E-4                  8.099999999999999E-5     2.605709815769103        25.37645172327666        17.46233865635577        0.0031593689757010443    207133.2200113535
1.3E-5                    1.18E-4                  8.099999999999999E-5     2.812843035780247        25.327346713508348       17.41713222275358        0.0031566596992752697    207133.2200113535
1.4E-5                    1.18E-4                  8.099999999999999E-5     3.0199762557917893       25.278241703740008       17.37192578915154        0.0031537432896294837    207133.2200113535
1.4999999999999999E-5     1.18E-4                  8.099999999999999E-5     3.2271094758030756       25.22913669397161        17.326719355549372       0.003150619746763686     207133.2200113535
1.6E-5                    1.18E-4                  8.099999999999999E-5     3.434242695814447        25.180031684203243       17.281512921947275       0.0031472890706778773    207133.2200113535
1.7E-5                    1.18E-4                  8.099999999999999E-5     3.6413759158258046       25.130926674434917       17.236306488345164       0.0031437512613720574    207133.2200113535
1.8E-5                    1.18E-4                  8.099999999999999E-5     3.8485091358371406       25.081821664666684       17.191100054743075       0.003140006318846226     207133.2200113535
1.8999999999999998E-5     1.18E-4                  8.099999999999999E-5     3.9374876337544293       24.787951904023558       17.171556163232324       0.0031360693245908794    195892.66685404442
1.9999999999999998E-5     1.18E-4                  8.099999999999999E-5     4.133380300608707        24.72617269948624        17.141985097263017       0.003132033890623698     195892.66685404442
2.1E-5                    1.18E-4                  8.099999999999999E-5     4.4705516113782835       24.797096710575424       16.860622786622855       0.003127729573202845     190712.141103521
2.2E-5                    1.18E-4                  8.099999999999999E-5     4.6612637524820855       24.71984221216361        16.82589070603656        0.0031231636655209153    190712.141103521
2.3E-5                    1.18E-4                  8.099999999999999E-5     4.843609443504164        24.63854689682816        16.782388178952395       0.003118408168922718     169011.66200713813
2.4E-5                    1.18E-4                  8.099999999999999E-5     5.012621105511144        24.556648805322954       16.73055255421734        0.003113480053648209     169011.66200713813
2.4999999999999998E-5     1.18E-4                  8.099999999999999E-5     5.208100462768183        24.422999982746997       16.759804990761644       0.003108381354549096     159474.9018905498
2.6E-5                    1.18E-4                  8.099999999999999E-5     5.33200332636641         24.458817701512785       16.841830153115545       0.003103086702286987     188288.87860488147
2.7E-5                    1.18E-4                  8.099999999999999E-5     5.520292204971213        24.347978500647955       16.769089708524035       0.003097660554521318     188288.87860488147
2.8E-5                    1.18E-4                  8.099999999999999E-5     5.708581083576135        24.237139299783394       16.696349263932923       0.003092046117877043     188288.87860488147
2.9E-5                    1.18E-4                  8.099999999999999E-5     5.8968699621811          24.126300098918506       16.623608819341413       0.0030862433923541633    188288.87860488147
2.9999999999999997E-5     1.18E-4                  8.099999999999999E-5     6.0851588407858515       24.015460898053732       16.550868374750003       0.0030802523779526808    188288.87860488147
3.1E-5                    1.18E-4                  8.099999999999999E-5     6.273447719390788        23.904621697188844       16.47812793015856        0.003074073074672593     188288.87860488147
3.2E-5                    1.18E-4                  8.099999999999999E-5     6.4617365979956105       23.79378249632404        16.40538748556765        0.0030677054825138995    188288.87860488147
3.2999999999999996E-5     1.18E-4                  8.099999999999999E-5     6.650025476600575        23.68294329545941        16.332647040976177       0.003061149601476601     188288.87860488147
3.4E-5                    1.18E-4                  8.099999999999999E-5     6.838314355205483        23.572104094594494       16.25990659638486        0.0030544054315606974    188288.87860488147
3.5E-5                    1.18E-4                  8.099999999999999E-5     7.02660323381042         23.461264893729833       16.187166151793605       0.0030474729727661886    188288.87860488147
3.6E-5                    1.18E-4                  8.099999999999999E-5     7.093138541461357        23.37169105223427        16.175794783516608       0.0030404315772557824    175437.32248248905
3.7E-5                    1.18E-4                  8.099999999999999E-5     7.268575863943909        23.24113668193371        16.057776772826912       0.003033250720053081     175437.32248248905
3.7999999999999995E-5     1.18E-4                  8.099999999999999E-5     7.444013186426346        23.110582311632868       15.939758762136748       0.0030258944255278945    175437.32248248905
3.9E-5                    1.18E-4                  8.099999999999999E-5     7.632086911107706        22.99930334734384        15.832543726121344       0.0030183565620848438    147057.8353098184
3.9999999999999996E-5     1.18E-4                  8.099999999999999E-5     7.779144746417586        22.887221654120395       15.746331879459355       0.0030106509462560806    147057.8353098184
4.1E-5                    1.18E-4                  8.099999999999999E-5     7.956524403562696        22.784004904332434       15.604003201764897       0.0030027708721373134    133447.07296776772
4.2E-5                    1.18E-4                  8.099999999999999E-5     8.089971476530565        22.647647497625243       15.518288947739968       0.0029947476241972662    133447.07296776772
4.2999999999999995E-5     1.18E-4                  8.099999999999999E-5     8.223418549498192        22.51129009091779        15.432574693715136       0.0029865909291842507    133447.07296776772
4.4E-5                    1.18E-4                  8.099999999999999E-5     8.356865622466046        22.374932684210435       15.346860439690383       0.00297830078709827      133447.07296776772
4.4999999999999996E-5     1.18E-4                  8.099999999999999E-5     8.490312695433815        22.238575277503134       15.261146185665519       0.002969877197939319     133447.07296776772
4.6E-5                    1.18E-4                  8.099999999999999E-5     8.623759768401605        22.10221787079578        15.17543193164067        0.0029613201617074017    133447.07296776772
4.7E-5                    1.18E-4                  8.099999999999999E-5     8.757206841369467        21.96586046408843        15.089717677615898       0.0029526296784025156    133447.07296776772
4.8E-5                    1.18E-4                  8.099999999999999E-5     8.890653914337122        21.829503057381018       15.0040034235911         0.002943805748024663     133447.07296776772
4.9E-5                    1.18E-4                  8.099999999999999E-5     9.025752218647995        21.688573970658005       14.917003958126315       0.002934847878540173     107034.39702646993
4.9999999999999996E-5     1.18E-4                  8.099999999999999E-5     9.132786615674519        21.539596033177048       14.813251632012367       0.002925768609123012     107034.39702646993
5.1E-5                    1.18E-4                  8.099999999999999E-5     9.239821012700943        21.390618095696112       14.709499305898532       0.0029165823053088247    107034.39702646993
5.2E-5                    1.18E-4                  8.099999999999999E-5     9.346855409727524        21.24164015821522        14.605746979784556       0.002907288967097609     107034.39702646993
5.3E-5                    1.18E-4                  8.099999999999999E-5     9.453889806753821        21.092662220734283       14.501994653670806       0.00289788859448937      107034.39702646993
5.4E-5                    1.18E-4                  8.099999999999999E-5     9.560924203780417        20.94368428325322        14.398242327556801       0.002888381187484103     107034.39702646993
5.4999999999999995E-5     1.18E-4                  8.099999999999999E-5     9.627974728152026        20.76091510934204        14.286487679568864       0.002878773964257758     91361.78128717095
5.6E-5                    1.18E-4                  8.099999999999999E-5     9.835094312181496        20.7501210868848         14.245596918240238       0.002868989688167907     91570.29187487904
5.6999999999999996E-5     1.18E-4                  8.099999999999999E-5     9.926664604056505        20.591197458531482       14.140539305562072       0.002859108808709787     91570.29187487904
5.8E-5                    1.18E-4                  8.099999999999999E-5     10.01823489593147        20.432273830178417       14.035481692883792       0.002849136358959794     91570.29187487904
5.9E-5                    1.18E-4                  8.099999999999999E-5     10.109805187806245       20.27335020182524        13.93042408020574        0.0028390723389179248    91570.29187487904
5.9999999999999995E-5     1.18E-4                  8.099999999999999E-5     10.20137547968114        20.114426573472176       13.825366467527545       0.0028289167485841807    91570.29187487904
6.1E-5                    1.18E-4                  8.099999999999999E-5     10.29294577155597        19.95550294511901        13.720308854849364       0.002818669587958563     91570.29187487904
6.2E-5                    1.18E-4                  8.099999999999999E-5     10.384516063430945       19.796579316765843       13.615251242171205       0.002808330857041069     91570.29187487904
6.3E-5                    1.18E-4                  8.099999999999999E-5     10.476086355305757       19.637655688412572       13.510193629493052       0.002797900555831701     91570.29187487904
6.4E-5                    1.18E-4                  8.099999999999999E-5     10.567656647180613       19.478732060059514       13.405136016814952       0.0027873786843304587    91570.29187487904
6.5E-5                    1.18E-4                  8.099999999999999E-5     10.659226939055497       19.319808431706363       13.300078404136826       0.0027767652425373397    91570.29187487904
6.599999999999999E-5      1.18E-4                  8.099999999999999E-5     10.750797230930345       19.16088480335319        13.195020791458546       0.002766060230452347     91570.29187487904
6.7E-5                    1.18E-4                  8.099999999999999E-5     10.842367522805228       19.001961175000115       13.08996317878028        0.0027552636480754787    91570.29187487904
6.8E-5                    1.18E-4                  8.099999999999999E-5     10.936641317130977       18.841815971855176       12.987486925319113       0.0027443753049462773    93682.83051300049
6.9E-5                    1.18E-4                  8.099999999999999E-5     11.030324147643825       18.686195544061484       12.875107985227523       0.002733391822213888     93682.83051300049
7.0E-5                    1.18E-4                  8.099999999999999E-5     10.976266959261181       18.567320672154782       12.750429341992307       0.0027223177331016047    56162.213479831815
7.099999999999999E-5      1.18E-4                  8.099999999999999E-5     11.032429172741217       18.396326233352653       12.632380501418368       0.0027113133850356023    56162.213479831815
7.2E-5                    1.18E-4                  8.099999999999999E-5     11.151023677084169       18.227967357992142       12.462199089278485       0.002700215783291729     42430.86186425388
7.3E-5                    1.18E-4                  8.099999999999999E-5     11.193454538948373       18.064669265991935       12.342107489643936       0.0026890435441837136    42430.86186425388
7.4E-5                    1.18E-4                  8.099999999999999E-5     11.235885400812684       17.901371173991834       12.222015890009807       0.0026778288742138326    42430.86186425388
7.5E-5                    1.18E-4                  8.099999999999999E-5     11.278316262676984       17.7380730819917         12.101924290375242       0.002666571773382087     42430.86186425388
7.599999999999999E-5      1.18E-4                  8.099999999999999E-5     11.3207471245412         17.574774989991653       11.98183269074135        0.0026552722416884776    42430.86186425388
7.7E-5                    1.18E-4                  8.099999999999999E-5     11.391954883492687       17.491861011765266       12.014698877735071       0.0026439217718136235    55597.9801580254
7.8E-5                    1.18E-4                  8.099999999999999E-5     11.447552863650756       17.344245091585535       11.911434055240235       0.002632502017940051     55597.9801580254
7.9E-5                    1.18E-4                  8.099999999999999E-5     11.503150843808783       17.196629171405917       11.808169232745314       0.002621026666086321     55597.9801580254
7.999999999999999E-5      1.18E-4                  8.099999999999999E-5     11.558748823966823       17.04901325122634        11.704904410250464       0.0026094957162524344    55597.9801580254
8.099999999999999E-5      1.18E-4                  8.099999999999999E-5     11.61434680412485        16.90139733104664        11.601639587755585       0.002597909168438389     55597.9801580254
8.2E-5                    1.18E-4                  8.099999999999999E-5     11.669944784282904       16.753781410866907       11.498374765260863       0.002586267022644184     55597.9801580254
8.3E-5                    1.18E-4                  8.099999999999999E-5     11.725542764440917       16.606165490687317       11.395109942765771       0.0025745692788698227    55597.9801580254
8.4E-5                    1.18E-4                  8.099999999999999E-5     11.781140744599014       16.458549570507614       11.29184512027092        0.0025628159371153016    55597.9801580254
8.499999999999999E-5      1.18E-4                  8.099999999999999E-5     11.766277463822945       16.292204473403437       11.19608401727487        0.0025510278914144986    26442.35604312271
8.599999999999999E-5      1.18E-4                  8.099999999999999E-5     11.691261009777477       16.12321314755036        10.986793785484773       0.002539298773445149     26755.431945117656
8.7E-5                    1.18E-4                  8.099999999999999E-5     11.718016441722682       15.990202318343279       10.900958007862565       0.0025275941347194       26755.431945117656
8.8E-5                    1.18E-4                  8.099999999999999E-5     11.744771873667887       15.857191489136142       10.815122230240418       0.002515862740561703     26755.431945117656
8.9E-5                    1.18E-4                  8.099999999999999E-5     11.87460757266852        15.664689591938384       10.740472481205444       0.0025040489347181957    6449.01685291063
8.999999999999999E-5      1.18E-4                  8.099999999999999E-5     11.881056589521442       15.526036790406092       10.648095590501562       0.0024921711026371003    6449.01685291063
9.099999999999999E-5      1.18E-4                  8.099999999999999E-5     11.887505606374242       15.3873839888738         10.555718699797502       0.0024802868215391526    6449.01685291063
9.2E-5                    1.18E-4                  8.099999999999999E-5     11.893954623227184       15.248731187341473       10.463341809093606       0.0024683960914243523    6449.01685291063
9.3E-5                    1.18E-4                  8.099999999999999E-5     11.900403640080112       15.110078385809167       10.370964918389575       0.002456498912292698     6449.01685291063
9.4E-5                    1.18E-4                  8.099999999999999E-5     11.90685265693299        14.97142558427685        10.27858802768555        0.002444595284144192     6449.01685291063
9.499999999999999E-5      1.18E-4                  8.099999999999999E-5     11.913301673785899       14.832772782744376       10.186211136981505       0.0024326852069788325    6449.01685291063
9.6E-5                    1.18E-4                  8.099999999999999E-5     11.919750690638747       14.69411998121225        10.093834246277595       0.0024207686807966203    6449.01685291063
9.7E-5                    1.18E-4                  8.099999999999999E-5     11.91822819788382        14.584583772744352       10.028913070052994       0.0024088527961954667    14331.019847027957
9.8E-5                    1.18E-4                  8.099999999999999E-5     11.93255921773084        14.437410375720518       9.922519904360271        0.0023969274024876596    14331.019847027957
9.9E-5                    1.18E-4                  8.099999999999999E-5     11.946890237577804       14.290236978696726       9.816126738667379        0.0023849876777600055    14331.019847027957
9.999999999999999E-5      1.18E-4                  8.099999999999999E-5     11.961221257424825       14.143063581672777       9.709733572974486        0.0023730336220125032    14331.019847027957
1.01E-4                   1.18E-4                  8.099999999999999E-5     11.98277002360058        13.997596467197667       9.602365248345336        0.0023610630214804884    4646.586134213954
1.02E-4                   1.18E-4                  8.099999999999999E-5     12.035460760059635       13.78390979094992        9.481656394974362        0.0023490420886155155    8528.480046123266
1.03E-4                   1.18E-4                  8.099999999999999E-5     11.908368577923707       13.680082785777609       9.391095130360657        0.0023370456888669026    -14837.782941756654
1.04E-4                   1.18E-4                  8.099999999999999E-5     11.943199762339546       13.5506013631461         9.318958548945332        0.0023251392022875105    -4546.452443733811
1.0499999999999999E-4     1.18E-4                  8.099999999999999E-5     11.938653309895898       13.421340826239835       9.227431920805252        0.002313198275751393     -4546.452443733811
1.06E-4                   1.18E-4                  8.099999999999999E-5     11.934106857452115       13.292080289333516       9.135905292665061        0.0023012618956677186    -4546.452443733811
1.07E-4                   1.18E-4                  8.099999999999999E-5     11.92956040500841        13.162819752427318       9.04437866452487         0.0022893300620364892    -4546.452443733811
1.08E-4                   1.18E-4                  8.099999999999999E-5     11.925013952564747       13.033559215521183       8.952852036384808        0.0022774027748577023    -4546.452443733811
1.0899999999999999E-4     1.18E-4                  8.099999999999999E-5     11.92046750012097        12.904298678614918       8.861325408244536        0.002265480034131359     -4546.452443733811
1.0999999999999999E-4     1.18E-4                  8.099999999999999E-5     11.915921047677259       12.775038141708723       8.76979878010426         0.0022535618398574603    -4546.452443733811
1.11E-4                   1.18E-4                  8.099999999999999E-5     11.896437763451816       12.646804267648951       8.694928985909737        0.0022416495496848706    -13708.217263884842
1.12E-4                   1.18E-4                  8.099999999999999E-5     11.882729546187967       12.514707557653214       8.607856339294539        0.002229759966030052     -13708.217263884842
1.13E-4                   1.18E-4                  8.099999999999999E-5     11.869021328923921       12.382610847657332       8.520783692679188        0.0022178840905924956    -13708.217263884842
1.1399999999999999E-4     1.18E-4                  8.099999999999999E-5     11.85531311166011        12.250514137661597       8.433711046064087        0.0022060219233722045    -13708.217263884842
1.1499999999999999E-4     1.18E-4                  8.099999999999999E-5     11.841604894396184       12.118417427665676       8.346638399448779        0.002194173464369175     -13708.217263884842
1.16E-4                   1.18E-4                  8.099999999999999E-5     11.821521929307735       11.985455503465474       8.257140277857001        0.002182338829204607     -33431.185236971825
1.17E-4                   1.18E-4                  8.099999999999999E-5     11.824902933390012       11.900570293874491       8.151439180943441        0.0021705208379921934    -32519.634946897626
1.18E-4                   1.18E-4                  8.099999999999999E-5     11.79238329844313        11.778295030408865       8.068343803391562        0.002158712194876276     -32519.634946897626
1.1899999999999999E-4     1.18E-4                  8.099999999999999E-5     11.759863663496152       11.656019766943238       7.985248425839577        0.0021469360713953067    -32519.634946897626
1.1999999999999999E-4     1.18E-4                  8.099999999999999E-5     11.727344028549254       11.533744503477443       7.902153048287769        0.002135192467549284     -32519.634946897626
1.21E-4                   1.18E-4                  8.099999999999999E-5     11.694824393602396       11.411469240011812       7.819057670735809        0.002123481383338208     -32519.634946897626
1.22E-4                   1.18E-4                  8.099999999999999E-5     11.662304758655416       11.289193976546215       7.7359622931838175       0.002111802818762079     -32519.634946897626
1.2299999999999998E-4     1.18E-4                  8.099999999999999E-5     11.62978512370858        11.166918713080577       7.652866915631975        0.0021001567738208977    -32519.634946897626
1.24E-4                   1.18E-4                  8.099999999999999E-5     11.597265488761714       11.044643449614895       7.569771538080047        0.0020885432485146624    -32519.634946897626
1.25E-4                   1.18E-4                  8.099999999999999E-5     11.564745853814756       10.922368186149242       7.486676160528106        0.002076962242843374     -32519.634946897626
1.26E-4                   1.18E-4                  8.099999999999999E-5     11.54754142559625        10.819591937086983       7.420825784830853        0.0020654076435544905    -18052.494516508654
1.27E-4                   1.18E-4                  8.099999999999999E-5     11.529488931079754       10.71281976562527        7.349440254578127        0.0020538691283761524    -18052.494516508654
1.28E-4                   1.18E-4                  8.099999999999999E-5     11.511436436563102       10.606047594163385       7.278054724325308        0.0020423486656923314    -18052.494516508654
1.29E-4                   1.18E-4                  8.099999999999999E-5     11.496188276949624       10.498369720875012       7.206729264160391        0.00203084562934869      -35352.12525403872
1.3E-4                    1.18E-4                  8.099999999999999E-5     11.46083615169562        10.398219657171055       7.136328099324555        0.0020193671171343675    -35352.12525403872
1.3099999999999999E-4     1.18E-4                  8.099999999999999E-5     11.42548402644156        10.29806959346731        7.065926934488862        0.002007923957045299     -35352.12525403872
1.3199999999999998E-4     1.18E-4                  8.099999999999999E-5     11.39013190118765        10.197919529763595       6.995525769653041        0.0019965161490814844    -35352.12525403872
1.33E-4                   1.18E-4                  8.099999999999999E-5     11.354779775933485       10.097769466059695       6.92512460481737         0.001985143693242924     -35352.12525403872
1.34E-4                   1.18E-4                  8.099999999999999E-5     11.319427650679454       9.99761940235592         6.854723439981599        0.0019738065895296172    -35352.12525403872
1.35E-4                   1.18E-4                  8.099999999999999E-5     11.284075525425445       9.897469338652105        6.784322275145911        0.001962504837941565     -35352.12525403872
1.36E-4                   1.18E-4                  8.099999999999999E-5     11.252124579183018       9.783869196270189        6.703961736103523        0.0019512365471425945    -34684.8366012685
1.37E-4                   1.18E-4                  8.099999999999999E-5     11.217439742581817       9.68081711543158         6.63124840013063         0.0019400017649817114    -34684.8366012685
1.38E-4                   1.18E-4                  8.099999999999999E-5     11.182754905980552       9.577765034592915        6.558535064157326        0.0019288016676574306    -34684.8366012685
1.39E-4                   1.18E-4                  8.099999999999999E-5     11.148070069379255       9.47471295375449         6.485821728184874        0.0019176362551697507    -34684.8366012685
1.4E-4                    1.18E-4                  8.099999999999999E-5     11.106265086504862       9.373454564813693        6.425337990894306        0.001906508598933739     -39211.92637613416
1.4099999999999998E-4     1.18E-4                  8.099999999999999E-5     11.063963838511064       9.27717345032049         6.356029763909447        0.0018954254346730257    -36985.2427827809
1.4199999999999998E-4     1.18E-4                  8.099999999999999E-5     11.026978595728494       9.18248026785038         6.2899497946688925       0.0018843799634559065    -36985.2427827809
1.43E-4                   1.18E-4                  8.099999999999999E-5     10.989993352945554       9.087787085380313        6.223869825428395        0.0018733714774815688    -36985.2427827809
1.44E-4                   1.18E-4                  8.099999999999999E-5     10.95728639270746        9.00449142089051         6.155399702312016        0.0018623960439666872    -37553.945395968854
1.45E-4                   1.18E-4                  8.099999999999999E-5     10.919732447311524       8.907774852482511        6.092274518700737        0.0018514575345466777    -37553.945395968854
1.46E-4                   1.18E-4                  8.099999999999999E-5     10.88217850191559        8.811058284074484        6.02914933508962         0.0018405565790720643    -37553.945395968854
1.47E-4                   1.18E-4                  8.099999999999999E-5     10.84462455651962        8.714341715666386        5.966024151478521        0.0018296931775428464    -37553.945395968854
1.48E-4                   1.18E-4                  8.099999999999999E-5     10.807070611123649       8.61762514725828         5.902898967867387        0.0018188673299590252    -37553.945395968854
1.49E-4                   1.18E-4                  8.099999999999999E-5     10.769516665727693       8.520908578850324        5.839773784256238        0.0018080790363205995    -37553.945395968854
1.5E-4                    1.18E-4                  8.099999999999999E-5     10.731962720331751       8.424192010442269        5.776648600645103        0.0017973282966275701    -37553.945395968854