% Model:              Micro_3DArray_v2.mph
% Version:            COMSOL 6.2.0.415
% Date:               Jan 30 2025, 12:40
% Dimension:          3
% Nodes:              501
% Expressions:        5
% Description:        Electric field, x-component, Electric field, y-component, Electric field, z-component, Electric potential, 
% Length unit:        m
% x                       y                        z                        ec.Ex (V/m)              ec.Ey (V/m)              ec.Ez (V/m)              V (V)                    d(ec.Ex,x) (V/m^2)
0                         1.18E-4                  8.099999999999999E-5     -0.10711183874673225     29.63851435548122        34.52480022555869        0.005424555291600428     5169579.555602074
1.0E-6                    1.18E-4                  8.099999999999999E-5     5.0660580198738          30.557228834757638       34.487958812169175       0.00542207958693205      5204732.852177858
2.0E-6                    1.18E-4                  8.099999999999999E-5     8.777529722365443        32.0043490958044         35.205907077468055       0.005414988063198827     3365547.100368023
3.0E-6                    1.18E-4                  8.099999999999999E-5     11.178435241319676       35.05704280563123        34.90051080913821        0.0054049627185168165    2351275.1780400276
4.0E-6                    1.18E-4                  8.099999999999999E-5     13.041337787163286       38.86138929440503        34.51031673250017        0.005392590059595912     -357256.3656448126
4.9999999999999996E-6     1.18E-4                  8.099999999999999E-5     13.992218114070283       41.33618809452081        34.22731291900334        0.005379098421015417     199442.95364284515
6.0E-6                    1.18E-4                  8.099999999999999E-5     14.139436211026123       42.71488153299879        33.54436063773119        0.005365008166318235     759406.2088548541
7.0E-6                    1.18E-4                  8.099999999999999E-5     15.024291700527101       44.39965438133942        32.54999946707267        0.005350401759889893     805371.435886383
8.0E-6                    1.18E-4                  8.099999999999999E-5     15.746580139413709       44.65825290302064        31.231763988462262       0.005335261877648349     185719.31273174286
9.0E-6                    1.18E-4                  8.099999999999999E-5     15.8289628431898         45.04750466413837        28.13345842230973        0.0053194715277957594    115136.29693698883
9.999999999999999E-6      1.18E-4                  8.099999999999999E-5     15.146618001769866       45.351060483827155       24.532335825127575       0.0053037019952780744    -2432210.2800781727
1.1E-5                    1.18E-4                  8.099999999999999E-5     12.427134722524443       44.965793266177286       20.338595531932924       0.005289854952871801     -2138620.3148522377
1.2E-5                    1.18E-4                  8.099999999999999E-5     8.592183136165659        45.249613616405895       18.297285849664775       0.005278876204257433     -5228813.094124556
1.3E-5                    1.18E-4                  8.099999999999999E-5     2.708236606553214        45.03856393586193        18.516704187393884       0.00527299741038028      -5949538.1731745
1.4E-5                    1.18E-4                  8.099999999999999E-5     -2.303715138132077       45.089271724222726       17.638061301644598       0.00527240058486218      -2535860.962630093
1.4999999999999999E-5     1.18E-4                  8.099999999999999E-5     -4.839576100762756       44.534372494003094       21.442883303774124       0.00527597223048163      -2535860.962630093
1.6E-5                    1.18E-4                  8.099999999999999E-5     -7.077811631486611       43.50422418633131        25.450216112443456       0.005282030229267294     -2359081.749466896
1.7E-5                    1.18E-4                  8.099999999999999E-5     -6.673489978887339       43.40835579331497        27.60315734033299        0.005289075501607871     -116544.67726380192
1.8E-5                    1.18E-4                  8.099999999999999E-5     -6.790034656150109       42.19204074325984        29.057062512288418       0.005295807263925388     -116544.67726380192
1.8999999999999998E-5     1.18E-4                  8.099999999999999E-5     -6.961133880680862       40.39231218864302        31.305196582568897       0.005302705926716558     -124858.87704895437
1.9999999999999998E-5     1.18E-4                  8.099999999999999E-5     -5.4459937699753596      38.34237124634592        31.595081836657755       0.005308557486929544     498124.68864123523
2.1E-5                    1.18E-4                  8.099999999999999E-5     -4.947869081333607       35.89927319898845        32.03937240568871        0.005313754418355197     498124.68864123523
2.2E-5                    1.18E-4                  8.099999999999999E-5     -2.3763923229347483      33.526393227255454       32.67406145201721        0.005317676375861258     2890456.9185216427
2.3E-5                    1.18E-4                  8.099999999999999E-5     0.4012317985163918       30.855866643254522       32.94132749953471        0.005318650518625292     2757396.003098488
2.4E-5                    1.18E-4                  8.099999999999999E-5     4.271956687509032        28.463059969701966       32.81730833861337        0.0053165478720610965    4484536.857983589
2.4999999999999998E-5     1.18E-4                  8.099999999999999E-5     9.1805791795814          28.14270680782814        33.23566057803146        0.0053097559503498286    5137001.991185665
2.6E-5                    1.18E-4                  8.099999999999999E-5     14.444073872500212       29.916131051844786       32.64679310400652        0.005298060082201821     3476374.0122289658
2.7E-5                    1.18E-4                  8.099999999999999E-5     17.51664469842268        32.47340279748438        33.3621027895465         0.005282260418633168     1132220.387096867
2.8E-5                    1.18E-4                  8.099999999999999E-5     19.395342897088085       34.03372951813867        33.0382580555447         0.005264168142860834     544126.6713671535
2.9E-5                    1.18E-4                  8.099999999999999E-5     20.057740227004558       38.381494649867705       33.41742674832565        0.005244741848789981     878257.657772541
2.9999999999999997E-5     1.18E-4                  8.099999999999999E-5     20.558488372376416       40.605264440624296       33.38030656118758        0.005224268319800527     205037.19222410023
3.1E-5                    1.18E-4                  8.099999999999999E-5     20.763525564601366       41.93095600488846        33.09238348470467        0.0052036073128320405    205037.19222410023
3.2E-5                    1.18E-4                  8.099999999999999E-5     21.42277231126741        42.431276855912415       31.979688621908394       0.005182801633274595     563281.0599820614
3.2999999999999996E-5     1.18E-4                  8.099999999999999E-5     22.119488320146786       42.988387684372015       30.267457793757615       0.005161062982140589     741295.6236514151
3.4E-5                    1.18E-4                  8.099999999999999E-5     22.679547809166706       43.003138030352005       27.929762975393828       0.005138777261307066     1298647.303003788
3.5E-5                    1.18E-4                  8.099999999999999E-5     22.97779471066201        42.40938223259536        25.489606802572325       0.0051154932596294824    -411663.473742187
3.6E-5                    1.18E-4                  8.099999999999999E-5     22.527943454960223       42.32448205891552        20.818253481011993       0.005092681182490809     -3872026.9576587677
3.7E-5                    1.18E-4                  8.099999999999999E-5     18.126433920452428       42.048510531733996       17.815511589562107       0.005072281345233135     -4066711.544873357
3.7999999999999995E-5     1.18E-4                  8.099999999999999E-5     13.574816686386738       41.363127548086894       15.370976835072554       0.005056238920317432     -5233967.092876971
3.9E-5                    1.18E-4                  8.099999999999999E-5     8.363337911539645        40.54781457941442        15.873859299768128       0.005045270719452261     -5240569.845999122
3.9999999999999996E-5     1.18E-4                  8.099999999999999E-5     5.323665732624136        40.37916234785939        17.33172271571169        0.0050393568668718955    -2115334.8178225756
4.1E-5                    1.18E-4                  8.099999999999999E-5     1.989654611687314        38.92436562215889        20.415502070551305       0.0050359575417268905    -2215969.117602825
4.2E-5                    1.18E-4                  8.099999999999999E-5     1.169723344835404        37.88405468256457        22.865228182994656       0.005034410551410216     -769003.7368869781
4.2999999999999995E-5     1.18E-4                  8.099999999999999E-5     1.0359588438524554       36.45161241120695        25.036603390440405       0.005033513403282076     936195.1514028162
4.4E-5                    1.18E-4                  8.099999999999999E-5     1.192381618221816        34.82397602475805        26.300293513369667       0.005032237930298467     -373503.555829525
4.4999999999999996E-5     1.18E-4                  8.099999999999999E-5     1.4622640670049805       32.8275092972068         27.205950346739428       0.005031130132149595     1535272.4871538281
4.6E-5                    1.18E-4                  8.099999999999999E-5     2.8852391095871894       30.949464442186752       27.937381111680395       0.005028916871128183     1274627.6265027523
4.7E-5                    1.18E-4                  8.099999999999999E-5     5.086141962296097        28.02030465801363        27.82384466463941        0.0050249991172433926    4838114.614195481
4.8E-5                    1.18E-4                  8.099999999999999E-5     8.433450627127513        26.467184542495374       28.765412575853873       0.0050184166343513305    3760345.360427141
4.9E-5                    1.18E-4                  8.099999999999999E-5     11.807462470860628       25.390156712856026       28.3181753104368         0.005008248001984354     3407489.865222931
4.9999999999999996E-5     1.18E-4                  8.099999999999999E-5     16.19066601256153        24.43818148659102        28.840351932164822       0.004994280097495121     4455106.571215315
5.1E-5                    1.18E-4                  8.099999999999999E-5     20.645772583777976       26.82655804809906        29.42139968716606        0.00497586187819695      4455106.571215315
5.2E-5                    1.18E-4                  8.099999999999999E-5     22.678704154304228       29.535483885366716       29.639681530506437       0.00495395250565774      1423778.92790699
5.3E-5                    1.18E-4                  8.099999999999999E-5     23.342230975312077       31.914782562516677       29.74555482253936        0.004930700475499644     1253641.3906207085
5.4E-5                    1.18E-4                  8.099999999999999E-5     24.32389233716748        34.55438103990696        29.881804210854625       0.004906563912733366     -161417.17871716619
5.4999999999999995E-5     1.18E-4                  8.099999999999999E-5     24.162475158449354       36.114463057984835       29.975336983234456       0.004882320728985558     -161417.17871716619
5.6E-5                    1.18E-4                  8.099999999999999E-5     24.657449770729272       37.434137719208564       29.850145814377754       0.00485806887106751      732153.7724442482
5.6999999999999996E-5     1.18E-4                  8.099999999999999E-5     24.81274712873197        37.8106611551367         29.544537748565574       0.004833631031452076     869465.5258575305
5.8E-5                    1.18E-4                  8.099999999999999E-5     25.629268973845228       38.5792469999833         28.96926623817194        0.004808403237464076     809905.4682202339
5.9E-5                    1.18E-4                  8.099999999999999E-5     27.16921900626801        37.096918686739514       26.984176737388225       0.004781901857210489     529680.5505347252
5.9999999999999995E-5     1.18E-4                  8.099999999999999E-5     27.550764820686254       36.774965752985224       23.69351527987942        0.0047545049699845715    259799.75032520294
6.1E-5                    1.18E-4                  8.099999999999999E-5     27.054179581846483       36.90009824093295        19.065877104938835       0.004726970685831536     -2570513.092966795
6.2E-5                    1.18E-4                  8.099999999999999E-5     24.327176882177923       35.39884938038283        14.66793303554141        0.004701341231441699     -2736372.7460074425
6.3E-5                    1.18E-4                  8.099999999999999E-5     21.590804136170163       34.56504863243839        11.7617530709133         0.004678382240932526     -2736372.7460074425
6.4E-5                    1.18E-4                  8.099999999999999E-5     14.9368497344052         33.82040207555201        11.639547725526654       0.0046605895456377526    -4860835.108948253
6.5E-5                    1.18E-4                  8.099999999999999E-5     11.536667595069048       33.20740928276177        13.350652124256612       0.004647275352372516     -3220733.263290599
6.599999999999999E-5      1.18E-4                  8.099999999999999E-5     8.55939652372092         32.06144258710526        15.433484281255005       0.004637199745315335     -2156672.8510556817
6.7E-5                    1.18E-4                  8.099999999999999E-5     6.559788711442934        30.982760023541204       17.58537204403251        0.004629413416062661     -35457.397423267365
6.8E-5                    1.18E-4                  8.099999999999999E-5     6.741873454577423        29.701438760678002       19.405685734486383       0.004622790646431749     128077.76890719403
6.9E-5                    1.18E-4                  8.099999999999999E-5     6.482356955635112        28.158644563927645       20.7476876531872         0.004616187468587766     -213095.84670257568
7.0E-5                    1.18E-4                  8.099999999999999E-5     7.245550862630736        26.302264920862044       21.632806753291234       0.004609413417527697     692194.764460519
7.099999999999999E-5      1.18E-4                  8.099999999999999E-5     8.36652173890468         24.516220253077876       22.377395454069813       0.004601699404242519     2101684.687496662
7.2E-5                    1.18E-4                  8.099999999999999E-5     10.226581074239448       22.051218520482962       22.53885386462275        0.004592283129391551     1800751.968356967
7.3E-5                    1.18E-4                  8.099999999999999E-5     13.357675761173596       20.512636105187227       23.36772527918413        0.004580393214225899     2797345.019352913
7.4E-5                    1.18E-4                  8.099999999999999E-5     16.753880442535774       20.370012740204857       23.88145786916283        0.004565611193830077     3819107.4344363213
7.5E-5                    1.18E-4                  8.099999999999999E-5     20.441975034590996       20.857151951296505       24.04775607206102        0.004546825321498192     3271804.7523318827
7.599999999999999E-5      1.18E-4                  8.099999999999999E-5     22.58562943463835        22.318015021423548       24.182098176869943       0.004524786789816321     1849510.9284710884
7.7E-5                    1.18E-4                  8.099999999999999E-5     25.505784241177366       25.13090344057821        24.28633068982424        0.004500592311982257     2250936.795897007
7.8E-5                    1.18E-4                  8.099999999999999E-5     25.66985457182036        27.49881233103224        24.507040180177682       0.0044748994994505695    412145.8819005409
7.9E-5                    1.18E-4                  8.099999999999999E-5     25.640457925629022       29.574122575373167       24.41146221957547        0.004448981798486367     -1049057.132554613
7.999999999999999E-5      1.18E-4                  8.099999999999999E-5     25.133892789583683       30.76141535643803        25.10450715204138        0.004423728172308509     -529569.0842254162
8.099999999999999E-5      1.18E-4                  8.099999999999999E-5     24.604323705358112       31.372528077197202       25.53015498417851        0.004398859064061039     -529569.0842254162
8.2E-5                    1.18E-4                  8.099999999999999E-5     25.650937371674218       30.53154621940511        25.38366453049739        0.004373647729638199     173923.66240787506
8.3E-5                    1.18E-4                  8.099999999999999E-5     26.240227898456055       31.61693793051967        24.68813949226336        0.004348017840344374     1836011.2672309875
8.4E-5                    1.18E-4                  8.099999999999999E-5     28.174160593694978       30.85988255936047        23.60743655696706        0.004320950853391987     588550.1656844616
8.499999999999999E-5      1.18E-4                  8.099999999999999E-5     28.806937231755697       30.987481257258594       21.07307230157953        0.004292465765705982     -370315.9072074145
8.599999999999999E-5      1.18E-4                  8.099999999999999E-5     28.669140123416213       30.03470243368571        17.12072240187672        0.004263765148012826     -45017.907290935516
8.7E-5                    1.18E-4                  8.099999999999999E-5     27.223398248410774       29.336304767511677       12.44766292724978        0.004235510088898836     -3925980.001317024
8.8E-5                    1.18E-4                  8.099999999999999E-5     23.711933118492198       28.609138905107557       10.461663763932847       0.004210174924099665     -3734592.1799459457
8.9E-5                    1.18E-4                  8.099999999999999E-5     19.59869825709825        27.049209785826747       8.42380957319881         0.004188768216485524     -4818450.720232964
8.999999999999999E-5      1.18E-4                  8.099999999999999E-5     14.780247536862817       26.27569308497766        9.02490882735367         0.00417157874358854      -4818450.720232964
9.099999999999999E-5      1.18E-4                  8.099999999999999E-5     12.129493006097867       25.21482732524609        10.70838464566873        0.004157964558360602     -2058809.7150023691
9.2E-5                    1.18E-4                  8.099999999999999E-5     10.877648603350735       24.469619929204327       12.257759658121586       0.004146486445382372     -1199832.1672465801
9.3E-5                    1.18E-4                  8.099999999999999E-5     10.09235127377613        23.220840364494336       13.879063754334311       0.0041361732702521236    -230649.87891488514
9.4E-5                    1.18E-4                  8.099999999999999E-5     9.805843043452342        21.955643019020044       15.707217615699392       0.004126201633903606     -433126.0096037388
9.499999999999999E-5      1.18E-4                  8.099999999999999E-5     10.210634303444266       20.28987258315567        16.229139616039674       0.004116271876204079     1273779.0296550542
9.6E-5                    1.18E-4                  8.099999999999999E-5     11.488247207139217       18.910179586015488       17.119990109572882       0.004105365303738928     905861.6624500821
9.7E-5                    1.18E-4                  8.099999999999999E-5     13.15826312250249        16.67409448959981        17.127777183015723       0.004093291647183753     3350797.390593052
9.8E-5                    1.18E-4                  8.099999999999999E-5     16.03671387989391        15.779323411094907       18.055336667981464       0.004078678137397056     2910463.6407604218
9.9E-5                    1.18E-4                  8.099999999999999E-5     18.401551745460864       15.87503325339219        18.77191997512054        0.004061445997757116     2371000.778020188
9.999999999999999E-5      1.18E-4                  8.099999999999999E-5     21.776990963575827       16.369861799770888       19.14752999409791        0.004041197949171233     1912401.5593070984
1.01E-4                   1.18E-4                  8.099999999999999E-5     24.152863301834174       17.943762158715632       19.024241388578375       0.004018514266641986     3002818.3450746536
1.02E-4                   1.18E-4                  8.099999999999999E-5     24.98437449440769        20.244206764388835       19.230457246469825       0.003993645294038449     316049.31205940247
1.03E-4                   1.18E-4                  8.099999999999999E-5     24.658668919730417       22.03975034146697        19.675493874396125       0.003968748932421008     659652.4687232375
1.04E-4                   1.18E-4                  8.099999999999999E-5     24.456067770783392       24.37624349878689        20.185018086701916       0.003943787647747535     -236434.1743196845
1.0499999999999999E-4     1.18E-4                  8.099999999999999E-5     24.219633596463098       25.429877610821677       20.523000026236218       0.003919449797063912     -236434.1743196845
1.06E-4                   1.18E-4                  8.099999999999999E-5     23.680417655605197       25.828551798835804       21.04622834442472        0.0038954523199826838    514024.2355365753
1.07E-4                   1.18E-4                  8.099999999999999E-5     24.2662080777934         25.819792639802223       20.915795591187877       0.003871502896094376     94315.02210235596
1.08E-4                   1.18E-4                  8.099999999999999E-5     24.69671493985072        25.29045792315776        20.691428000583024       0.0038471411258322982    1156912.2413282394
1.0899999999999999E-4     1.18E-4                  8.099999999999999E-5     26.297868528302537       24.66684805727425        19.69731162716414        0.003821548317688317     868190.6846525222
1.0999999999999999E-4     1.18E-4                  8.099999999999999E-5     27.166059212954885       24.373707870479166       17.685466495878728       0.003794816353817689     868190.6846525222
1.11E-4                   1.18E-4                  8.099999999999999E-5     27.80325756338584        23.734692259009677       13.896200639442213       0.0037668246664990085    -363169.1372332573
1.12E-4                   1.18E-4                  8.099999999999999E-5     26.586565393987257       23.16558668586704        10.080071802080624       0.003739553852445433     -1515311.7253160477
1.13E-4                   1.18E-4                  8.099999999999999E-5     24.126364919835737       22.177780412896677       7.353633153727294        0.0037138803111797453    -4388523.331989288
1.1399999999999999E-4     1.18E-4                  8.099999999999999E-5     20.302187607359997       21.804526349179014       5.78699443885364         0.0036918550157051698    -3089764.826047182
1.1499999999999999E-4     1.18E-4                  8.099999999999999E-5     16.69282072308642        20.404746662340173       6.222237182575448        0.0036736016933053947    -2625220.574523449
1.16E-4                   1.18E-4                  8.099999999999999E-5     13.924744206909764       19.482454831442194       7.111202781769535        0.0036582484535506547    -3003504.5533185005
1.17E-4                   1.18E-4                  8.099999999999999E-5     12.113656147333813       18.593895756016437       8.605031361650049        0.0036454435468656838    -1257584.7607851028
1.18E-4                   1.18E-4                  8.099999999999999E-5     11.567316117344426       17.497163199555434       9.985685735592256        0.0036335176831253867    -425845.1041933559
1.1899999999999999E-4     1.18E-4                  8.099999999999999E-5     11.174800062239854       16.261179845804634       11.179921700463467       0.0036221834169171915    129148.95003323257
1.1999999999999999E-4     1.18E-4                  8.099999999999999E-5     11.303949012273335       15.11855686985615        12.25183323902786        0.003610944042379936     129148.95003323257
1.21E-4                   1.18E-4                  8.099999999999999E-5     12.720375732669709       13.903925865297197       12.861595564516847       0.0035988684499476432    1346738.7176761627
1.22E-4                   1.18E-4                  8.099999999999999E-5     13.920368975235306       12.382922663041114       13.518096106150438       0.003585555867733728     2229494.855540991
1.2299999999999998E-4     1.18E-4                  8.099999999999999E-5     16.149863830776553       11.408417879041025       13.703352531492897       0.0035705207513307227    2229494.855540991
1.24E-4                   1.18E-4                  8.099999999999999E-5     19.087601078307898       10.900128016594863       14.447416658929669       0.0035528935101704693    1973216.1513588428
1.25E-4                   1.18E-4                  8.099999999999999E-5     21.131485824215588       12.526542947134772       14.546841982520633       0.0035328125137052413    1958465.2134430408
1.26E-4                   1.18E-4                  8.099999999999999E-5     22.52233909257717        14.003970026716445       14.75225120235919        0.003510799162909178     1104169.7333667278
1.27E-4                   1.18E-4                  8.099999999999999E-5     23.62650882594494        16.239993308325325       15.314129780359735       0.003487724738949918     1104169.7333667278
1.28E-4                   1.18E-4                  8.099999999999999E-5     22.964343500374753       18.124043777263978       15.904514890213079       0.0034642564692939424    -1087026.6071047783
1.29E-4                   1.18E-4                  8.099999999999999E-5     22.779200564420933       19.30661693328173        15.785876709319382       0.0034415468327889344    -458707.2428789139
1.3E-4                    1.18E-4                  8.099999999999999E-5     21.66888770236119        20.447325374742455       16.531775756890283       0.0034191865808599316    65454.390208244324
1.3099999999999999E-4     1.18E-4                  8.099999999999999E-5     21.685727323865535       20.384137701296318       16.94175918093117        0.003397496792198005     -24649.864860773087
1.3199999999999998E-4     1.18E-4                  8.099999999999999E-5     21.66107745900436        20.165628858897993       17.195145611317187       0.00337582338980657      -24649.864860773087
1.33E-4                   1.18E-4                  8.099999999999999E-5     23.09943285786244        19.957875402544687       16.593309079649885       0.0033538428057399944    828306.9969863892
1.34E-4                   1.18E-4                  8.099999999999999E-5     23.828495312818404       19.639417556641064       16.382051242404714       0.00333080230440769      2731624.7093679905
1.35E-4                   1.18E-4                  8.099999999999999E-5     25.006545523807233       19.14483844963928        14.52327864239345        0.003306173474333417     597589.0300120115
1.36E-4                   1.18E-4                  8.099999999999999E-5     25.448894991473765       18.53289051856285        11.597175524868817       0.0032807857539201217    -675336.8387435675
1.37E-4                   1.18E-4                  8.099999999999999E-5     24.95289742966446        17.951134924486723       8.228535980529614        0.003255632689826194     -299756.21012341976
1.38E-4                   1.18E-4                  8.099999999999999E-5     22.924506581529613       16.85270337420684        5.0746401752703605       0.0032313089971392882    -4107240.608324349
1.39E-4                   1.18E-4                  8.099999999999999E-5     19.293104027625418       16.269093075328783       4.0477690357492975       0.0032103014990277753    -3340999.1508646607
1.4E-4                    1.18E-4                  8.099999999999999E-5     16.506670097262372       15.256127599002639       3.7614957356513514       0.003192467222552496     -2621141.239463687
1.4099999999999998E-4     1.18E-4                  8.099999999999999E-5     14.143772482039656       14.772866158029075       4.494101415973976        0.003177304488558084     -1685772.9501092434
1.4199999999999998E-4     1.18E-4                  8.099999999999999E-5     12.574381413312267       14.08253339723251        5.585435331646067        0.0031639651455838756    -1521864.4908299
1.43E-4                   1.18E-4                  8.099999999999999E-5     11.496058520776023       13.168899989355856       6.926558446530819        0.0031520770430460672    -238252.16101197898
1.44E-4                   1.18E-4                  8.099999999999999E-5     11.387081744765737       12.039648968826555       7.993054129797054        0.0031406800702415334    172143.70318460464
1.45E-4                   1.18E-4                  8.099999999999999E-5     11.689340601777872       10.93625178792928        8.819753642168394        0.0031292552949752656    687080.2467541248
1.46E-4                   1.18E-4                  8.099999999999999E-5     12.894902351355086       10.236656313342564       9.338068592768934        0.0031171848786190914    505124.4919908047
1.47E-4                   1.18E-4                  8.099999999999999E-5     14.056275691135511       8.632297526570483        9.926194802737257        0.0031040168014730626    2660269.0861973763
1.48E-4                   1.18E-4                  8.099999999999999E-5     15.744483815009715       8.302723696879994        10.346548339171747       0.003089071399902631     1590061.1949739456
1.49E-4                   1.18E-4                  8.099999999999999E-5     17.778722292226234       8.319285540913114        10.974450480119799       0.0030724416662560477    2340868.313550949
1.5E-4                    1.18E-4                  8.099999999999999E-5     19.637283549001268       9.553466995944746        11.203972607555045       0.0030535865765482185    1320417.9970636368